   * xtb version 6.6.1 (8d0f1dd) compiled by 'conda@1efc2f54142f' on 2023-08-01
          program call               : xtb dataGeo_opt/Oxazole/Oxazole_rdkitOp.xyz --gfn 2 --opt vtight --parallel 4

   ID    Z sym.   atoms
    1    6 C      1, 2, 5
    2    8 O      3
    3    7 N      4
    4    1 H      6-8

          :  Hamiltonian                  GFN2-xTB          :
 * total energy  :   -14.8798914 Eh     change       -0.6883205E-10 Eh
 * total energy  :   -14.8823838 Eh     change       -0.2492401E-02 Eh
 * total energy  :   -14.8827912 Eh     change       -0.4074421E-03 Eh
 * total energy  :   -14.8828205 Eh     change       -0.2929307E-04 Eh
 * total energy  :   -14.8828288 Eh     change       -0.8236568E-05 Eh
 * total energy  :   -14.8828293 Eh     change       -0.5276307E-06 Eh
 * total energy  :   -14.8828293 Eh     change       -0.2976161E-07 Eh
   *** GEOMETRY OPTIMIZATION CONVERGED AFTER 7 ITERATIONS ***

 final structure:
================
8
 xtb: 6.6.1 (8d0f1dd)
C           -0.02284122382480        0.77769208648800       -0.00001139280272
C           -1.08441462610576       -0.07686212537046        0.00001456594021
O           -0.64674794696045       -1.33705297984469       -0.00002395882397
N            0.70231569623897       -1.33866896210140       -0.00001275168490
C            1.08990848487168       -0.09501295999128        0.00001599075037
H           -0.02594634001019        1.84659264794284       -0.00002308018490
H           -2.14512524141417        0.07521763934294        0.00002216477880
H            2.13285219720470        0.14809565353407        0.00001746202711

          :  Hamiltonian                  GFN2-xTB          :
         :: total energy             -14.882829323112 Eh    ::
         :: gradient norm              0.000075553054 Eh/a0 ::
         :: HOMO-LUMO gap              4.422649871509 eV    ::
         :: SCC energy               -15.061962173340 Eh    ::
         :: -> dispersion             -0.004109250617 Eh    ::
         :: repulsion energy           0.179132352151 Eh    ::

    * Orbital Energies and Occupations

         #    Occupation            Energy/Eh            Energy/eV
      -------------------------------------------------------------
         1        2.0000           -0.7644731             -20.8024
         2        2.0000           -0.6863575             -18.6767
         3        2.0000           -0.6819032             -18.5555
         4        2.0000           -0.6158756             -16.7588
         5        2.0000           -0.5964213             -16.2295
         6        2.0000           -0.5932973             -16.1444
         7        2.0000           -0.5679733             -15.4553
         8        2.0000           -0.5102631             -13.8850
         9        2.0000           -0.4975768             -13.5398
        10        2.0000           -0.4879493             -13.2778
        11        2.0000           -0.4536912             -12.3456
        12        2.0000           -0.4326768             -11.7737
        13        2.0000           -0.4130882             -11.2407 (HOMO)
        14                         -0.2505588              -6.8181 (LUMO)
        15                         -0.1857062              -5.0533
        16                         -0.0029563              -0.0804
        17                          0.1018324               2.7710
        18                          0.1318015               3.5865
        19                          0.1924355               5.2364
        20                          0.2511886               6.8352
        21                          0.3812337              10.3739
        22                          0.4181973              11.3797
        23                          0.6506892              17.7062
      -------------------------------------------------------------
                  HL-Gap            0.1625294 Eh            4.4226 eV

     #   Z          covCN         q      C6AA      α(0)
     1   6 C        2.954    -0.066    29.635     8.929
     2   6 C        3.021     0.088    26.019     8.367
     3   8 O        1.826    -0.099    15.809     5.369
     4   7 N        1.967    -0.120    24.365     7.320
     5   6 C        3.029     0.042    27.040     8.530
     6   1 H        0.927     0.045     2.389     2.417
     7   1 H        0.926     0.061     2.185     2.311
     8   1 H        0.926     0.050     2.315     2.379

Wiberg/Mayer (AO) data.
largest (>0.10) Wiberg bond orders for each atom

     #   Z sym  total        # sym  WBO       # sym  WBO       # sym  WBO
 ---------------------------------------------------------------------------
     1   6 C    3.984 --     2 C    1.590     5 C    1.299     6 H    0.975
     2   6 C    3.927 --     1 C    1.590     3 O    1.187     7 H    0.962
                             4 N    0.171
     3   8 O    2.484 --     2 C    1.187     4 N    1.108
     4   7 N    2.958 --     5 C    1.612     3 O    1.108     2 C    0.171
     5   6 C    3.981 --     4 N    1.612     1 C    1.299     8 H    0.967
     6   1 H    0.998 --     1 C    0.975
     7   1 H    0.996 --     2 C    0.962
     8   1 H    0.997 --     5 C    0.967
 ---------------------------------------------------------------------------

molecular dipole:
                 x           y           z       tot (Debye)
 q only:       -0.177       0.617       0.000
   full:       -0.326       1.013       0.000       2.704

           -------------------------------------------------
          | TOTAL ENERGY              -14.882829323112 Eh   |
          | GRADIENT NORM               0.000075553054 Eh/α |
          | HOMO-LUMO GAP               4.422649871509 eV   |
           -------------------------------------------------

 * finished run on 2024/12/10 at 07:23:47.965
